ANIMSTEPS     100
ATOMS 1
1     -2.519394287073761     -2.519394287073761  -2.519394287073761
1     -1.6795961913825073     -1.6795961913825073  -2.519394287073761
1     -2.519394287073761     -1.6795961913825073  -1.6795961913825073
1     -1.6795961913825073     -2.519394287073761  -1.6795961913825073
1     -0.8397980956912536     -2.519394287073761  -2.519394287073761
1     0.0     -1.6795961913825073  -2.519394287073761
1     -0.8397980956912536     -1.6795961913825073  -1.6795961913825073
1     0.0     -2.519394287073761  -1.6795961913825073
1     0.8397980956912534     -2.519394287073761  -2.519394287073761
1     1.6795961913825068     -1.6795961913825073  -2.519394287073761
1     0.8397980956912534     -1.6795961913825073  -1.6795961913825073
1     1.6795961913825068     -2.519394287073761  -1.6795961913825073
1     -2.519394287073761     -0.8397980956912536  -2.519394287073761
1     -1.6795961913825073     0.0  -2.519394287073761
1     -2.519394287073761     0.0  -1.6795961913825073
1     -1.6795961913825073     -0.8397980956912536  -1.6795961913825073
1     -0.8397980956912536     -0.8397980956912536  -2.519394287073761
1     0.0     0.0  -2.519394287073761
1     -0.8397980956912536     0.0  -1.6795961913825073
1     0.0     -0.8397980956912536  -1.6795961913825073
1     0.8397980956912534     -0.8397980956912536  -2.519394287073761
1     1.6795961913825068     0.0  -2.519394287073761
1     0.8397980956912534     0.0  -1.6795961913825073
1     1.6795961913825068     -0.8397980956912536  -1.6795961913825073
1     -2.519394287073761     0.8397980956912534  -2.519394287073761
1     -1.6795961913825073     1.6795961913825068  -2.519394287073761
1     -2.519394287073761     1.6795961913825068  -1.6795961913825073
1     -1.6795961913825073     0.8397980956912534  -1.6795961913825073
1     -0.8397980956912536     0.8397980956912534  -2.519394287073761
1     0.0     1.6795961913825068  -2.519394287073761
1     -0.8397980956912536     1.6795961913825068  -1.6795961913825073
1     0.0     0.8397980956912534  -1.6795961913825073
1     0.8397980956912534     0.8397980956912534  -2.519394287073761
1     1.6795961913825068     1.6795961913825068  -2.519394287073761
1     0.8397980956912534     1.6795961913825068  -1.6795961913825073
1     1.6795961913825068     0.8397980956912534  -1.6795961913825073
1     -2.519394287073761     -2.519394287073761  -0.8397980956912536
1     -1.6795961913825073     -1.6795961913825073  -0.8397980956912536
1     -2.519394287073761     -1.6795961913825073  0.0
1     -1.6795961913825073     -2.519394287073761  0.0
1     -0.8397980956912536     -2.519394287073761  -0.8397980956912536
1     0.0     -1.6795961913825073  -0.8397980956912536
1     -0.8397980956912536     -1.6795961913825073  0.0
1     0.0     -2.519394287073761  0.0
1     0.8397980956912534     -2.519394287073761  -0.8397980956912536
1     1.6795961913825068     -1.6795961913825073  -0.8397980956912536
1     0.8397980956912534     -1.6795961913825073  0.0
1     1.6795961913825068     -2.519394287073761  0.0
1     -2.519394287073761     -0.8397980956912536  -0.8397980956912536
1     -1.6795961913825073     0.0  -0.8397980956912536
1     -2.519394287073761     0.0  0.0
1     -1.6795961913825073     -0.8397980956912536  0.0
1     -0.8397980956912536     -0.8397980956912536  -0.8397980956912536
1     0.0     0.0  -0.8397980956912536
1     -0.8397980956912536     0.0  0.0
1     0.0     -0.8397980956912536  0.0
1     0.8397980956912534     -0.8397980956912536  -0.8397980956912536
1     1.6795961913825068     0.0  -0.8397980956912536
1     0.8397980956912534     0.0  0.0
1     1.6795961913825068     -0.8397980956912536  0.0
1     -2.519394287073761     0.8397980956912534  -0.8397980956912536
1     -1.6795961913825073     1.6795961913825068  -0.8397980956912536
1     -2.519394287073761     1.6795961913825068  0.0
1     -1.6795961913825073     0.8397980956912534  0.0
1     -0.8397980956912536     0.8397980956912534  -0.8397980956912536
1     0.0     1.6795961913825068  -0.8397980956912536
1     -0.8397980956912536     1.6795961913825068  0.0
1     0.0     0.8397980956912534  0.0
1     0.8397980956912534     0.8397980956912534  -0.8397980956912536
1     1.6795961913825068     1.6795961913825068  -0.8397980956912536
1     0.8397980956912534     1.6795961913825068  0.0
1     1.6795961913825068     0.8397980956912534  0.0
1     -2.519394287073761     -2.519394287073761  0.8397980956912534
1     -1.6795961913825073     -1.6795961913825073  0.8397980956912534
1     -2.519394287073761     -1.6795961913825073  1.6795961913825068
1     -1.6795961913825073     -2.519394287073761  1.6795961913825068
1     -0.8397980956912536     -2.519394287073761  0.8397980956912534
1     0.0     -1.6795961913825073  0.8397980956912534
1     -0.8397980956912536     -1.6795961913825073  1.6795961913825068
1     0.0     -2.519394287073761  1.6795961913825068
1     0.8397980956912534     -2.519394287073761  0.8397980956912534
1     1.6795961913825068     -1.6795961913825073  0.8397980956912534
1     0.8397980956912534     -1.6795961913825073  1.6795961913825068
1     1.6795961913825068     -2.519394287073761  1.6795961913825068
1     -2.519394287073761     -0.8397980956912536  0.8397980956912534
1     -1.6795961913825073     0.0  0.8397980956912534
1     -2.519394287073761     0.0  1.6795961913825068
1     -1.6795961913825073     -0.8397980956912536  1.6795961913825068
1     -0.8397980956912536     -0.8397980956912536  0.8397980956912534
1     0.0     0.0  0.8397980956912534
1     -0.8397980956912536     0.0  1.6795961913825068
1     0.0     -0.8397980956912536  1.6795961913825068
1     0.8397980956912534     -0.8397980956912536  0.8397980956912534
1     1.6795961913825068     0.0  0.8397980956912534
1     0.8397980956912534     0.0  1.6795961913825068
1     1.6795961913825068     -0.8397980956912536  1.6795961913825068
1     -2.519394287073761     0.8397980956912534  0.8397980956912534
1     -1.6795961913825073     1.6795961913825068  0.8397980956912534
1     -2.519394287073761     1.6795961913825068  1.6795961913825068
1     -1.6795961913825073     0.8397980956912534  1.6795961913825068
1     -0.8397980956912536     0.8397980956912534  0.8397980956912534
1     0.0     1.6795961913825068  0.8397980956912534
1     -0.8397980956912536     1.6795961913825068  1.6795961913825068
1     0.0     0.8397980956912534  1.6795961913825068
1     0.8397980956912534     0.8397980956912534  0.8397980956912534
1     1.6795961913825068     1.6795961913825068  0.8397980956912534
1     0.8397980956912534     1.6795961913825068  1.6795961913825068
1     1.6795961913825068     0.8397980956912534  1.6795961913825068
ATOMS 2
1     -2.515311190686373     -2.5149151981873294  -2.5171667459622915
1     -1.682471534635369     -1.6803672189049532  -2.517418092448752
1     -2.517646552190775     -1.6787490834436296  -1.6778680926201373
1     -1.6732813067451058     -2.5189155369753133  -1.6777873496397413
1     -0.8329989484188601     -2.5232955636003576  -2.5172156734364304
1     0.0014628099969674418     -1.6763878578934828  -2.5200253089691196
1     -0.8440930209686598     -1.68395031706414  -1.6807043950930496
1     -0.0014176242937871464     -2.520888455690814  -1.6864923214413337
1     0.8362039542085504     -2.518701150788583  -2.5216217082424484
1     1.6684411626750735     -1.6777049437124232  -2.5206236484697504
1     0.8395918906092121     -1.6841532744565284  -1.6704168668420876
1     1.6783717319214468     -2.527507884256797  -1.679188020586746
1     -2.5185250839025817     -0.8413367839504784  -2.527029164306311
1     -1.6751731975079238     -2.026520510877636e-06  -2.5159067068969305
1     -2.522159250247258     -0.002814857559947386  -1.6794690414975062
1     -1.6822771955451303     -0.8439118899870806  -1.682604046711989
1     -0.8339429444764656     -0.8390904856535866  -2.518002094540972
1     -0.007280323485246099     0.0012392712838417358  -2.515628748586848
1     -0.8368134957465027     0.0043907457513310535  -1.6856918596275303
1     -0.0054569126887738     -0.8383675799903575  -1.6778892708035154
1     0.8467802408423414     -0.8365708971766583  -2.520986519495937
1     1.6775777474937132     -0.0006520559044832008  -2.5236834800388017
1     0.8342082718342064     0.0032675436453664087  -1.6804528912548138
1     1.6750208338091201     -0.8411128654666438  -1.6765215638467823
1     -2.52160626668256     0.8409156966377551  -2.517600359399701
1     -1.6759573264136858     1.683919568603456  -2.5206269105367514
1     -2.5205761387090058     1.6797282315902102  -1.6772052360223315
1     -1.6815594655109805     0.8378305602164556  -1.674444262084231
1     -0.838951079098463     0.8382459567693342  -2.517494770207885
1     0.0006384822022948007     1.6835548710991417  -2.519913004421995
1     -0.8360568643741583     1.68236224402505  -1.6816762462311041
1     -0.0004599091113639745     0.8426067561536094  -1.6785566136174763
1     0.8430885863370473     0.8386646516351572  -2.516269870570201
1     1.678958458067468     1.6784726030155774  -2.518278735691337
1     0.837661417593784     1.6779032076506515  -1.6751733668061433
1     1.677577484052852     0.8443980907463882  -1.6793032152752718
1     -2.525063036000639     -2.5188815556878397  -0.8415684851769617
1     -1.6811174282467234     -1.6850510459053432  -0.8395002589902499
1     -2.5134867752554806     -1.6762166952740616  -0.0009282480316480463
1     -1.6823317108169915     -2.516506448085453  0.0012995887502560012
1     -0.8437511568552549     -2.523446880372934  -0.8366014912993555
1     0.002844524254547998     -1.6820819417575568  -0.8408666934819884
1     -0.8453330371338418     -1.6800744963140388  -0.0005964882162317322
1     -0.002192277428208896     -2.5147077977282257  0.002136744868036511
1     0.8439616579209553     -2.520139799429807  -0.8374412461498667
1     1.6769171577464972     -1.677125463449991  -0.8356649950430938
1     0.8381202712235873     -1.672936125758723  -0.00039939281097003807
1     1.6779859964613335     -2.5221746490071326  0.005557033906811936
1     -2.517421443935433     -0.8393071979495766  -0.8347688695941619
1     -1.6787691192441863     0.005163222959351783  -0.8413919043967917
1     -2.517973978736362     -0.0018773501420662575  0.003691537321843695
1     -1.6905680889187695     -0.8390747220585835  -0.002684086509598512
1     -0.8427549981203144     -0.83197674659558  -0.8414750387893452
1     -0.003916923152931339     -0.00044652320839261116  -0.8391455729909766
1     -0.8394460271193688     -0.005177080985147925  0.0008170034906697047
1     0.0010273894791127459     -0.83216204673656  -0.0008660552314829062
1     0.8415428089971908     -0.8400769067966585  -0.8373209942884111
1     1.676437153362053     0.0022429117838411927  -0.8434137581167621
1     0.8327908063901979     0.0058382782616573274  -0.003625153489259006
1     1.6870956470069511     -0.8398760903800391  -0.002249445864255667
1     -2.5117399791096293     0.8356520323155245  -0.8369312183015581
1     -1.676951952431426     1.6764736402319773  -0.8400015871459775
1     -2.5205310957002798     1.671052427545567  0.004384080354362511
1     -1.6845729819215118     0.8349569307665979  0.0023053332751184065
1     -0.8382415909464208     0.8369339627175586  -0.8400617116486542
1     -0.004294730005511251     1.6820142482625913  -0.8420645334842414
1     -0.8440317231194958     1.6780908851213523  0.0021748891319752946
1     0.0028678025454458678     0.838965190643565  -0.005410532310341042
1     0.845291801573023     0.837022349187936  -0.8371187115665306
1     1.6820981809672255     1.6785853986942183  -0.8399553687715815
1     0.8441995572282653     1.6774353180348371  -0.0025083448534788905
1     1.6837295979347222     0.8361429075438755  -0.005624826213463896
1     -2.516242144010962     -2.5228061000656763  0.8347625589757193
1     -1.6805515636005404     -1.679842142322952  0.8403053472281011
1     -2.520195617672745     -1.685746052169569  1.6821142731585121
1     -1.6783063257323276     -2.519572852018918  1.680978915353947
1     -0.8414462327893601     -2.523218307915221  0.8370093814734889
1     0.004941768977338007     -1.679039213760221  0.8366703362215457
1     -0.8428458762583003     -1.6810706607871255  1.6790588488010811
1     0.0023839144840230968     -2.5204378949196364  1.681427633211945
1     0.8469762409515352     -2.518366338640723  0.836502382529566
1     1.6792205806585616     -1.6883167227431277  0.8394276680570667
1     0.8451657115544684     -1.675754082433582  1.678980380770387
1     1.679865973362511     -2.516908685682691  1.6787607641825388
1     -2.5184475617640723     -0.8408386181668112  0.8431267619613602
1     -1.6760406998244028     0.002856174312751413  0.8448499778099118
1     -2.5278624924221624     0.0037982972652069982  1.6745314777625264
1     -1.6776036645853378     -0.8415870872493906  1.6822505459841344
1     -0.8431350472622167     -0.8409574185325555  0.8366345110870471
1     -0.002041587263802978     -0.0023852959955170273  0.8389217289770999
1     -0.8415442594839962     0.002617230440078775  1.6680012792359897
1     0.001174445923008288     -0.8361633310003038  1.6787087392611406
1     0.836362017087366     -0.8459966370004401  0.8425450320670363
1     1.6752735371614644     0.0020406377983653453  0.8440635021335213
1     0.8377874853699366     0.0008305008175844081  1.6824410779817325
1     1.6840076165478735     -0.8401637536470716  1.682182739955611
1     -2.5224289630170915     0.841184106808393  0.8369005066274848
1     -1.6805391364399607     1.6816858430149395  0.8442487870351703
1     -2.5133996249408996     1.6826163982385967  1.6809426753254624
1     -1.6805495998410596     0.8340864571934282  1.6747143046966837
1     -0.8375572645356438     0.8481106993979365  0.838658880547154
1     0.0004927323283255171     1.6820942096489322  0.8403789188799535
1     -0.8415765761461     1.6843406432405794  1.6732213750182625
1     -0.0030588062927420644     0.8368376386873422  1.6771880930077043
1     0.845855995872438     0.842278100890156  0.8365121167959555
1     1.6861357209845003     1.6817072750526143  0.8404561424898346
1     0.8444156150552065     1.6756124745468295  1.6839776406952942
1     1.6822287811400822     0.8420211282841228  1.67420253126474
ATOMS 3
1     -2.511228094298985     -2.510436109300898  -2.514939204850822
1     -1.6853468778882306     -1.6811382464273992  -2.515441897823743
1     -2.515898817307789     -1.677901975504752  -1.6761399938577672
1     -1.6669664221077043     -2.518436786876866  -1.6759785078969753
1     -0.8261998011464666     -2.5271968401269542  -2.5150370597991
1     0.0029256199939348836     -1.6731795244044583  -2.5206563308644783
1     -0.848387946246066     -1.6883044427457725  -1.681812598803592
1     -0.002835248587574293     -2.5223826243078675  -1.69338845150016
1     0.8326098127258474     -2.518008014503405  -2.523849129411136
1     1.6572861339676401     -1.675813696042339  -2.52185300986574
1     0.8393856855271709     -1.6887103575305495  -1.6612375423016679
1     1.6771472724603869     -2.5356214814398332  -1.6787798497909847
1     -2.5176558807314025     -0.8428754722097032  -2.534664041538861
1     -1.6707502036333404     -4.053041021755272e-06  -2.5124191267201
1     -2.524924213420755     -0.005629715119894772  -1.6793418916125051
1     -1.6849581997077534     -0.8480256842829075  -1.6856119020414706
1     -0.8280877932616775     -0.8383828756159195  -2.516609902008183
1     -0.014560646970492199     0.0024785425676834717  -2.511863210099935
1     -0.8338288958017517     0.008781491502662107  -1.6917875278725534
1     -0.0109138253775476     -0.8369370642894614  -1.6761823502245234
1     0.8537623859934294     -0.833343698662063  -2.5225787519181133
1     1.6755593036049197     -0.0013041118089664016  -2.5279726730038425
1     0.8286184479771594     0.006535087290732817  -1.6813095911271203
1     1.6704454762357335     -0.8424276352420339  -1.6734469363110573
1     -2.5238182462913588     0.8420332975842568  -2.515806431725641
1     -1.6723184614448643     1.6882429458244053  -2.521859533999742
1     -2.5217579903442506     1.6798602717979136  -1.6748142806621558
1     -1.6835227396394536     0.8358630247416579  -1.6692923327859548
1     -0.8381040625056724     0.836693817847415  -2.5155952533420094
1     0.0012769644045896014     1.6875135508157766  -2.5204317217702292
1     -0.8323156330570629     1.6851282966675933  -1.683756301079701
1     -0.000919818222727949     0.8454154166159653  -1.6775170358524454
1     0.8463790769828412     0.8375312075790611  -2.5131454540666414
1     1.678320724752429     1.677349014648648  -2.5171631843089135
1     0.8355247394963146     1.6762102239187961  -1.6707505422297793
1     1.675558776723197     0.8489980858015229  -1.6790102391680364
1     -2.5307317849275175     -2.5183688243019184  -0.8433388746626698
1     -1.6826386651109395     -1.690505900428179  -0.8392024222892462
1     -2.5075792634372003     -1.672837199165616  -0.0018564960632960926
1     -1.6850672302514758     -2.513618609097145  0.0025991775005120023
1     -0.8477042180192562     -2.527499473672107  -0.8334048869074573
1     0.005689048509095996     -1.6845676921326063  -0.8419352912727232
1     -0.8508679785764299     -1.6805528012455704  -0.0011929764324634645
1     -0.004384554856417792     -2.5100213083826906  0.004273489736073022
1     0.8481252201506573     -2.5208853117858534  -0.8350843966084798
1     1.6742381241104876     -1.6746547355174748  -0.8315318943949339
1     0.8364424467559213     -1.6662760601349387  -0.0007987856219400761
1     1.6763758015401602     -2.5249550109405043  0.011114067813623871
1     -2.515448600797105     -0.8388163002078997  -0.8297396434970701
1     -1.6779420471058653     0.010326445918703566  -0.8429857131023297
1     -2.5165536703989635     -0.003754700284132515  0.00738307464368739
1     -1.7015399864550318     -0.8383513484259133  -0.005368173019197024
1     -0.8457119005493752     -0.8241553974999063  -0.8431519818874367
1     -0.007833846305862677     -0.0008930464167852223  -0.8384930502906995
1     -0.8390939585474839     -0.01035416197029585  0.0016340069813394094
1     0.0020547789582254917     -0.8245259977818664  -0.0017321104629658124
1     0.8432875223031282     -0.8403557179020633  -0.8348438928855686
1     1.6732781153415992     0.004485823567682385  -0.8470294205422706
1     0.8257835170891423     0.011676556523314655  -0.007250306978518012
1     1.6945951026313955     -0.8399540850688245  -0.004498891728511334
1     -2.5040856711454977     0.8315059689397957  -0.8340643409118627
1     -1.6743077134803448     1.6733510890814478  -0.8402050786007014
1     -2.5216679043267987     1.662508663708627  0.008768160708725022
1     -1.6895497724605164     0.8301157658419425  0.004610666550236813
1     -0.836685086201588     0.8340698297438638  -0.8403253276060547
1     -0.008589460011022503     1.6844323051426757  -0.8443309712772291
1     -0.848265350547738     1.6765855788601978  0.004349778263950589
1     0.0057356050908917355     0.8381322855958766  -0.010821064620682084
1     0.8507855074547925     0.8342466026846187  -0.8344393274418076
1     1.6846001705519442     1.6775746060059298  -0.8401126418519094
1     0.8486010187652773     1.6752744446871675  -0.005016689706957781
1     1.6878630044869376     0.8324877193964977  -0.011249652426927792
1     -2.513090000948163     -2.5262179130575917  0.8297270222601851
1     -1.6815069358185735     -1.6800880932633966  0.8408125987649488
1     -2.5209969482717294     -1.6918959129566309  1.6846323549345175
1     -1.677016460082148     -2.5197514169640747  1.682361639325387
1     -0.8430943698874667     -2.527042328756681  0.8342206672557244
1     0.009883537954676015     -1.6784822361379348  0.8335425767518381
1     -0.845893656825347     -1.6825451301917438  1.6785215062196555
1     0.0047678289680461935     -2.521481502765512  1.6832590750413834
1     0.854154386211817     -2.517338390207685  0.8332066693678786
1     1.6788449699346164     -1.6970372541037482  0.83905724042288
1     0.8505333274176834     -1.6719119734846566  1.678364570158267
1     1.6801357553425151     -2.514423084291621  1.6779253369825708
1     -2.5175008364543836     -0.8418791406423687  0.8464554282314669
1     -1.6724852082662984     0.005712348625502826  0.8499018599285701
1     -2.536330697770564     0.0075965945304139965  1.669466764142546
1     -1.6756111377881684     -0.8433760788075275  1.684904900585762
1     -0.8464719988331797     -0.8421167413738573  0.8334709264828408
1     -0.004083174527605956     -0.0047705919910340545  0.8380453622629465
1     -0.8432904232767389     0.00523446088015755  1.6564063670894726
1     0.002348891846016576     -0.832528566309354  1.6778212871397744
1     0.8329259384834786     -0.8521951783096267  0.8452919684428193
1     1.670950882940422     0.0040812755967306906  0.8483289085757892
1     0.8357768750486199     0.0016610016351688163  1.6852859645809581
1     1.68841904171324     -0.8405294116028896  1.6847692885287153
1     -2.525463638960422     0.8425701179255325  0.8340029175637163
1     -1.681482081497414     1.6837754946473722  0.8486994783790871
1     -2.5074049628080384     1.6856366050946865  1.682289159268418
1     -1.6815030082996119     0.828374818695603  1.6698324180108606
1     -0.835316433380034     0.8564233031046196  0.8375196654030546
1     0.0009854646566510342     1.6845922279153576  0.8409597420686536
1     -0.8433550566009465     1.689085095098652  1.6668465586540182
1     -0.006117612585484129     0.833877181683431  1.6747799946329018
1     0.8519138960536226     0.8447581060890585  0.8332261379006576
1     1.6926752505864937     1.6838183587227218  0.8411141892884157
1     0.8490331344191595     1.6716287577111522  1.6883590900080816
1     1.6848613708976576     0.8442441608769922  1.668808871146973
ATOMS 4
1     -2.507144997911597     -2.5059570204144666  -2.5127116637393527
1     -1.6882222211410922     -1.6819092739498451  -2.513465703198734
1     -2.514151082424803     -1.6770548675658743  -1.6744118950953972
1     -1.6606515374703028     -2.5179580367784182  -1.6741696661542094
1     -0.8194006538740731     -2.531098116653551  -2.5128584461617693
1     0.004388429990902326     -1.6699711909154338  -2.521287352759837
1     -0.8526828715234721     -1.6926585684274051  -1.6829208025141342
1     -0.004252872881361439     -2.523876792924921  -1.7002845815589864
1     0.8290156712431445     -2.5173148782182273  -2.5260765505798233
1     1.6461311052602068     -1.673922448372255  -2.5230823712617294
1     0.8391794804451296     -1.6932674406045707  -1.6520582177612482
1     1.6759228129993269     -2.5437350786228694  -1.6783716789952234
1     -2.5167866775602232     -0.8444141604689279  -2.542298918771411
1     -1.666327209758757     -6.079561532632908e-06  -2.5089315465432698
1     -2.5276891765942517     -0.008444572679842157  -1.679214741727504
1     -1.6876392038703765     -0.8521394785787344  -1.6886197573709523
1     -0.8222326420468894     -0.8376752655782524  -2.5152177094753942
1     -0.0218409704557383     0.0037178138515252075  -2.5080976716130223
1     -0.8308442958570007     0.01317223725399316  -1.6978831961175764
1     -0.0163707380663214     -0.8355065485885652  -1.6744754296455315
1     0.8607445311445173     -0.8301165001474677  -2.5241709843402895
1     1.673540859716126     -0.0019561677134496023  -2.5322618659688834
1     0.8230286241201125     0.009802630936099226  -1.6821662909994268
1     1.6658701186623468     -0.843742405017424  -1.6703723087753324
1     -2.5260302259001577     0.8431508985307585  -2.514012504051581
1     -1.6686795964760428     1.6925663230453545  -2.5230921574627323
1     -2.5229398419794955     1.679992312005617  -1.67242332530198
1     -1.6854860137679268     0.8338954892668601  -1.6641404034876786
1     -0.8372570459128817     0.8351416789254958  -2.5136957364761336
1     0.001915446606884402     1.6914722305324115  -2.5209504391184634
1     -0.8285744017399675     1.6878943493101366  -1.6858363559282978
1     -0.0013797273340919235     0.8482240770783213  -1.6764774580874144
1     0.8496695676286351     0.8363977635229649  -2.5100210375630816
1     1.67768299143739     1.6762254262817187  -2.51604763292649
1     0.8333880613988451     1.6745172401869408  -1.6663277176534153
1     1.673540069393542     0.8535980808566577  -1.678717263060801
1     -2.536400533854396     -2.517856092915997  -0.8451092641483778
1     -1.6841599019751556     -1.695960754951015  -0.8389045855882425
1     -2.50167175161892     -1.6694577030571702  -0.002784744094944139
1     -1.68780274968596     -2.510730770108837  0.0038987662507680033
1     -0.8516572791832575     -2.53155206697128  -0.8302082825155591
1     0.008533572763643993     -1.6870534425076558  -0.8430038890634579
1     -0.8564029200190181     -1.681031106177102  -0.0017894646486951967
1     -0.006576832284626688     -2.5053348190371554  0.006410234604109533
1     0.8522887823803592     -2.5216308241418997  -0.8327275470670928
1     1.671559090474478     -1.6721840075849586  -0.827398793746774
1     0.8347646222882552     -1.6596159945111544  -0.0011981784329101143
1     1.6747656066189869     -2.527735372873876  0.01667110172043581
1     -2.513475757658777     -0.8383254024662227  -0.8247104173999783
1     -1.6771149749675442     0.015489668878055349  -0.8445795218078678
1     -2.515133362061565     -0.005632050426198772  0.011074611965531084
1     -1.712511883991294     -0.8376279747932431  -0.008052259528795536
1     -0.8486688029784359     -0.8163340484042326  -0.8448289249855282
1     -0.011750769458794016     -0.0013395696251778334  -0.8378405275904225
1     -0.8387418899755991     -0.015531242955443773  0.002451010472009114
1     0.0030821684373382374     -0.8168899488271728  -0.0025981656944487185
1     0.8450322356090656     -0.8406345290074682  -0.8323667914827261
1     1.6701190773211454     0.006728735351523578  -0.8506450829677791
1     0.8187762277880868     0.017514834784971983  -0.010875460467777018
1     1.7020945582558398     -0.84003207975761  -0.006748337592767001
1     -2.496431363181366     0.8273599055640668  -0.8311974635221672
1     -1.6716634745292636     1.6702285379309183  -0.8404085700554252
1     -2.5228047129533175     1.6539648998716872  0.013152241063087534
1     -1.694526562999521     0.825274600917287  0.006915999825355219
1     -0.8351285814567552     0.831205696770169  -0.8405889435634553
1     -0.012884190016533754     1.6868503620227602  -0.8465974090702169
1     -0.8524989779759802     1.6750802725990432  0.006524667395925884
1     0.008603407636337603     0.8372993805481882  -0.016231596931023128
1     0.8562792133365621     0.8314708561813013  -0.8317599433170846
1     1.687102160136663     1.6765638133176413  -0.8402699149322372
1     0.8530024803022892     1.6731135713394978  -0.007525034560436671
1     1.691996411039153     0.8288325312491198  -0.01687447864039169
1     -2.509937857885364     -2.529629726049507  0.824691485544651
1     -1.6824623080366066     -1.6803340442038412  0.8413198503017966
1     -2.5217982788707136     -1.6980457737436927  1.6871504367105228
1     -1.6757265944319684     -2.5199299819092316  1.6837443632968272
1     -0.8447425069855732     -2.5308663495981407  0.8314319530379599
1     0.014825306932014021     -1.6779252585156486  0.8304148172821304
1     -0.8489414373923937     -1.684019599596362  1.6779841636382298
1     0.00715174345206929     -2.5225251106113875  1.6850905168708217
1     0.8613325314720989     -2.516310441774647  0.8299109562061912
1     1.6784693592106712     -1.7057577854643686  0.8386868127886933
1     0.8559009432808984     -1.6680698645357313  1.677748759546147
1     1.6804055373225193     -2.511937482900551  1.6770899097826029
1     -2.516554111144695     -0.8429196631179262  0.8497840945015737
1     -1.668929716708194     0.008568522938254238  0.8549537420472285
1     -2.5447989031189655     0.011394891795620995  1.6644020505225656
1     -1.673618610990999     -0.8451650703656645  1.6875592551873895
1     -0.8498089504041427     -0.8432760642151591  0.8303073418786345
1     -0.0061247617914089334     -0.007155887986551082  0.837168995548793
1     -0.8450365870694815     0.007851691320236324  1.6448114549429556
1     0.003523337769024864     -0.8288938016184042  1.6769338350184082
1     0.8294898598795912     -0.8583937196188132  0.8480389048186022
1     1.6666282287193797     0.006121913395096035  0.8525943150180572
1     0.8337662647273031     0.0024915024527532243  1.6881308511801838
1     1.6928304668786067     -0.8408950695587076  1.6873558371018196
1     -2.5284983149037528     0.843956129042672  0.8311053284999477
1     -1.6824250265548675     1.6858651462798049  0.853150169723004
1     -2.501410300675177     1.6886568119507763  1.6836356432113735
1     -1.6824564167581642     0.8226631801977778  1.6649505313250375
1     -0.8330756022244242     0.8647359068113026  0.8363804502589551
1     0.0014781969849765515     1.687090246181783  0.8415405652573538
1     -0.8451335370557929     1.6938295469567246  1.660471742289774
1     -0.009176418878226194     0.8309167246795197  1.6723718962580993
1     0.8579717962348071     0.8472381112879611  0.8299401590053597
1     1.6992147801884872     1.6859294423928293  0.8417722360869969
1     0.8536506537831126     1.6676450408754748  1.692740539320869
1     1.687493960655233     0.8464671934698615  1.6634152110292062
ATOMS 5
1     -2.5030619015242093     -2.501477931528035  -2.5104841226278833